 Gaussian 16, Revision A.03,
 Gaussian 16:  ES64L-G16RevA.03 25-Dec-2016

 --------------------------------------------------
 #P TEST b3lyp/6-311G** EmpiricalDispersion=GD3 opt
 --------------------------------------------------

 --------------------
 mono-C9-BTBT cif opt
 --------------------
 Symbolic Z-matrix:
 Charge =  0 Multiplicity = 1

 SCF Done:  E(RB3LYP) =  -1688.43163709     A.U. after   14 cycles
 SCF Done:  E(RB3LYP) =  -1688.60805257     A.U. after   12 cycles
 SCF Done:  E(RB3LYP) =  -1688.80438733     A.U. after   12 cycles
 SCF Done:  E(RB3LYP) =  -1688.84545440     A.U. after   12 cycles
 SCF Done:  E(RB3LYP) =  -1688.84591110     A.U. after   11 cycles
 SCF Done:  E(RB3LYP) =  -1688.84615677     A.U. after   11 cycles
 SCF Done:  E(RB3LYP) =  -1688.84627346     A.U. after   11 cycles
 SCF Done:  E(RB3LYP) =  -1688.84630158     A.U. after   11 cycles
 SCF Done:  E(RB3LYP) =  -1688.84632229     A.U. after   10 cycles
 SCF Done:  E(RB3LYP) =  -1688.84640407     A.U. after   11 cycles
 SCF Done:  E(RB3LYP) =  -1688.84648559     A.U. after   11 cycles
 SCF Done:  E(RB3LYP) =  -1688.84649156     A.U. after    9 cycles
 SCF Done:  E(RB3LYP) =  -1688.84649293     A.U. after    8 cycles
 SCF Done:  E(RB3LYP) =  -1688.84649303     A.U. after    7 cycles
 SCF Done:  E(RB3LYP) =  -1688.84649307     A.U. after    6 cycles
 SCF Done:  E(RB3LYP) =  -1688.84649311     A.U. after    6 cycles
 SCF Done:  E(RB3LYP) =  -1688.84649312     A.U. after    5 cycles
 Optimization completed.
    -- Stationary point found.

                         Standard orientation:
 ---------------------------------------------------------------------
 Center     Atomic      Atomic             Coordinates (Angstroms)
 Number     Number       Type             X           Y           Z
 ---------------------------------------------------------------------
      1         16           0        2.949027   -1.555657    1.033671
      2         16           0        4.849720    1.643199   -0.976635
      3          6           0        0.461194   -0.259927    1.382095
      4          6           0       -0.349302    0.860299    1.208240
      5          6           0        0.175609    1.990684    0.551182
      6          6           0        1.475160    2.017714    0.074181
      7          6           0        6.319525   -1.934871   -0.011297
      8          6           0        7.622176   -1.913538   -0.485084
      9          6           0        8.129494   -0.779929   -1.138096
     10          6           0        7.338804    0.347565   -1.325348
     11          6           0        6.028691    0.329318   -0.850311
     12          6           0        5.502120   -0.809364   -0.188293
     13          6           0        4.142890   -0.575690    0.199834
     14          6           0        3.657311    0.663019   -0.142761
     15          6           0        2.297398    0.895186    0.243867
     16          6           0        1.769919   -0.241613    0.904717
     17          6           0       -1.788690    0.847036    1.666259
     18          6           0       -2.763133    0.448042    0.542599
     19          6           0       -4.226520    0.439309    0.992206
     20          6           0       -5.200253    0.044496   -0.122273
     21          6           0       -6.665376    0.033352    0.324353
     22          6           0       -7.639778   -0.359587   -0.790248
     23          6           0       -9.104859   -0.371366   -0.343954
     24          6           0      -10.080943   -0.763339   -1.457991
     25          6           0      -11.541968   -0.771737   -0.999886
     26          1           0        0.072956   -1.137513    1.887888
     27          1           0       -0.458268    2.861628    0.421405
     28          1           0        1.861566    2.899564   -0.424434
     29          1           0        5.928109   -2.810958    0.493285
     30          1           0        8.257081   -2.781415   -0.350257
     31          1           0        9.150357   -0.781147   -1.501839
     32          1           0        7.732773    1.221939   -1.829912
     33          1           0       -1.904415    0.152622    2.505294
     34          1           0       -2.063795    1.838675    2.042717
     35          1           0       -2.484975   -0.543367    0.165956
     36          1           0       -2.639205    1.138875   -0.299765
     37          1           0       -4.342656   -0.251828    1.837077
     38          1           0       -4.495115    1.433035    1.373477
     39          1           0       -4.930067   -0.948359   -0.504118
     40          1           0       -5.083831    0.736297   -0.966368
     41          1           0       -6.781584   -0.659386    1.167862
     42          1           0       -6.934804    1.026074    0.707542
     43          1           0       -7.369970   -1.352079   -1.173733
     44          1           0       -7.523586    0.333421   -1.633550
     45          1           0       -9.221713   -1.064887    0.499082
     46          1           0       -9.375065    0.620957    0.040275
     47          1           0       -9.963829   -0.069795   -2.299579
     48          1           0       -9.810405   -1.754793   -1.841153
     49          1           0      -12.216699   -1.054257   -1.812637
     50          1           0      -11.692553   -1.480818   -0.179670
     51          1           0      -11.847083    0.216491   -0.641361
 ---------------------------------------------------------------------

 The electronic state is 1-A.
 Alpha  occ. eigenvalues --  -88.87851 -88.87798 -10.21583 -10.21520 -10.21084
 Alpha  occ. eigenvalues --  -10.20985 -10.19781 -10.19568 -10.18783 -10.18728
 Alpha  occ. eigenvalues --  -10.18410 -10.18385 -10.18363 -10.18136 -10.17977
 Alpha  occ. eigenvalues --  -10.17712 -10.17583 -10.16926 -10.16627 -10.16426
 Alpha  occ. eigenvalues --  -10.16361 -10.16322 -10.16234 -10.16180 -10.15671
 Alpha  occ. eigenvalues --   -7.96450  -7.96396  -5.92788  -5.92735  -5.92434
 Alpha  occ. eigenvalues --   -5.92381  -5.91938  -5.91883  -0.91925  -0.88213
 Alpha  occ. eigenvalues --   -0.84685  -0.82063  -0.81453  -0.80098  -0.78375
 Alpha  occ. eigenvalues --   -0.77246  -0.76226  -0.73745  -0.73582  -0.71166
 Alpha  occ. eigenvalues --   -0.69731  -0.67631  -0.64278  -0.62115  -0.61452
 Alpha  occ. eigenvalues --   -0.59382  -0.58982  -0.58090  -0.57602  -0.57183
 Alpha  occ. eigenvalues --   -0.56671  -0.50758  -0.50340  -0.49214  -0.48716
 Alpha  occ. eigenvalues --   -0.47250  -0.46599  -0.45895  -0.45425  -0.44396
 Alpha  occ. eigenvalues --   -0.43782  -0.43701  -0.43343  -0.42879  -0.42211
 Alpha  occ. eigenvalues --   -0.41368  -0.41008  -0.40317  -0.40166  -0.39027
 Alpha  occ. eigenvalues --   -0.38414  -0.37756  -0.37400  -0.36776  -0.35924
 Alpha  occ. eigenvalues --   -0.35714  -0.35042  -0.34599  -0.34236  -0.34071
 Alpha  occ. eigenvalues --   -0.33943  -0.33495  -0.33269  -0.32764  -0.32632
 Alpha  occ. eigenvalues --   -0.32359  -0.32168  -0.30596  -0.28663  -0.27427
 Alpha  occ. eigenvalues --   -0.24784  -0.22628  -0.20911
 Alpha virt. eigenvalues --   -0.05268  -0.02059  -0.01335  -0.00599   0.00721
 Alpha virt. eigenvalues --    0.01776   0.03861   0.04039   0.04403   0.04660
 Alpha virt. eigenvalues --    0.05266   0.05634   0.05791   0.06140   0.06963

 Mulliken charges:
               1
     1  S    0.261125
     2  S    0.263811
     3  C   -0.049871
     4  C   -0.072466
     5  C   -0.083344
     6  C   -0.034833
     7  C   -0.037399
     8  C   -0.109439
     9  C   -0.076288
    10  C   -0.074234
    11  C   -0.193788
    12  C    0.009196
    13  C   -0.173480
    14  C   -0.173323
    15  C    0.015988
    16  C   -0.191126
    17  C   -0.195341
    18  C   -0.182757
    19  C   -0.206575
    20  C   -0.201691
    21  C   -0.201600
    22  C   -0.200179
    23  C   -0.203162
    24  C   -0.221918
    25  C   -0.289297
    26  H    0.085214
    27  H    0.085566
    28  H    0.092073
    29  H    0.093853
    30  H    0.096531
    31  H    0.097235
    32  H    0.096111
    33  H    0.111566
    34  H    0.116132
    35  H    0.108556
    36  H    0.108875
    37  H    0.102721
    38  H    0.102371
    39  H    0.103012
    40  H    0.102673
    41  H    0.101187
    42  H    0.101043
    43  H    0.100991
    44  H    0.100824
    45  H    0.100253
    46  H    0.100173
    47  H    0.103361
    48  H    0.103436
    49  H    0.105836
    50  H    0.101222
    51  H    0.101176
 Sum of Mulliken charges =   0.00000

 Dipole moment (field-independent basis, Debye):
    X=             -0.7387    Y=              0.0332    Z=             -0.0169  Tot=              0.7397
 Quadrupole moment (field-independent basis, Debye-Ang):
   XX=           -153.5979   YY=           -159.8077   ZZ=           -170.6262
   XY=             -4.0500   XZ=             -5.8890   YZ=             -4.4800

 Normal termination of Gaussian 16 at Mon Jun  8 09:51:58 2020.
